# vtk DataFile Version 5.1
vtk output
ASCII
DATASET STRUCTURED_GRID
DIMENSIONS 53 43 42
POINTS 95718 float
19.916 18.9741 19.165 19.9587 18.9741 19.165 20.0013 18.9741 19.165 
20.044 18.9741 19.165 20.0867 18.9741 19.165 20.1293 18.9741 19.165 
20.172 18.9741 19.165 20.2147 18.9741 19.165 20.2573 18.9741 19.165 
20.3 18.9741 19.165 20.3427 18.9741 19.165 20.3853 18.9741 19.165 
20.428 18.9741 19.165 20.4707 18.9741 19.165 20.5133 18.9741 19.165 
20.556 18.9741 19.165 20.5987 18.9741 19.165 20.6413 18.9741 19.165 
20.684 18.9741 19.165 20.7267 18.9741 19.165 20.7693 18.9741 19.165 
20.812 18.9741 19.165 20.8547 18.9741 19.165 20.8973 18.9741 19.165 
20.94 18.9741 19.165 20.9827 18.9741 19.165 21.0253 18.9741 19.165 
21.068 18.9741 19.165 21.1107 18.9741 19.165 21.1533 18.9741 19.165 
21.196 18.9741 19.165 21.2387 18.9741 19.165 21.2813 18.9741 19.165 
21.324 18.9741 19.165 21.3667 18.9741 19.165 21.4093 18.9741 19.165 
21.452 18.9741 19.165 21.4947 18.9741 19.165 21.5387 18.9741 19.165 
21.5874 18.9741 19.165 21.6416 18.9741 19.165 21.7015 18.9741 19.165 
21.7677 18.9741 19.165 21.8406 18.9741 19.165 21.9207 18.9741 19.165 
22.0082 18.9741 19.165 22.1037 18.9741 19.165 22.2072 18.9741 19.165 
22.3192 18.9741 19.165 22.4395 18.9741 19.165 22.5683 18.9741 19.165 
22.7053 18.9741 19.165 22.8501 18.9741 19.165 19.916 19.1171 19.165 
19.9587 19.1171 19.165 20.0013 19.1171 19.165 20.044 19.1171 19.165 
20.0867 19.1171 19.165 20.1293 19.1171 19.165 20.172 19.1171 19.165 
20.2147 19.1171 19.165 20.2573 19.1171 19.165 20.3 19.1171 19.165 
20.3427 19.1171 19.165 20.3853 19.1171 19.165 20.428 19.1171 19.165 
20.4707 19.1171 19.165 20.5133 19.1171 19.165 20.556 19.1171 19.165 
20.5987 19.1171 19.165 20.6413 19.1171 19.165 20.684 19.1171 19.165 
20.7267 19.1171 19.165 20.7693 19.1171 19.165 20.812 19.1171 19.165 
20.8547 19.1171 19.165 20.8973 19.1171 19.165 20.94 19.1171 19.165 
20.9827 19.1171 19.165 21.0253 19.1171 19.165 21.068 19.1171 19.165 
21.1107 19.1171 19.165 21.1533 19.1171 19.165 21.196 19.1171 19.165 
21.2387 19.1171 19.165 21.2813 19.1171 19.165 21.324 19.1171 19.165 
21.3667 19.1171 19.165 21.4093 19.1171 19.165 21.452 19.1171 19.165 
21.4947 19.1171 19.165 21.5387 19.1171 19.165 21.5874 19.1171 19.165 
21.6416 19.1171 19.165 21.7015 19.1171 19.165 21.7677 19.1171 19.165 
21.8406 19.1171 19.165 21.9207 19.1171 19.165 22.0082 19.1171 19.165 
22.1037 19.1171 19.165 22.2072 19.1171 19.165 22.3192 19.1171 19.165 
22.4395 19.1171 19.165 22.5683 19.1171 19.165 22.7053 19.1171 19.165 
22.8501 19.1171 19.165 19.916 19.2111 19.165 19.9587 19.2111 19.165 
20.0013 19.2111 19.165 20.044 19.2111 19.165 20.0867 19.2111 19.165 
20.1293 19.2111 19.165 20.172 19.2111 19.165 20.2147 19.2111 19.165 
20.2573 19.2111 19.165 20.3 19.2111 19.165 20.3427 19.2111 19.165 
20.3853 19.2111 19.165 20.428 19.2111 19.165 20.4707 19.2111 19.165 
20.5133 19.2111 19.165 20.556 19.2111 19.165 20.5987 19.2111 19.165 
20.6413 19.2111 19.165 20.684 19.2111 19.165 20.7267 19.2111 19.165 
20.7693 19.2111 19.165 20.812 19.2111 19.165 20.8547 19.2111 19.165 
20.8973 19.2111 19.165 20.94 19.2111 19.165 20.9827 19.2111 19.165 
21.0253 19.2111 19.165 21.068 19.2111 19.165 21.1107 19.2111 19.165 
21.1533 19.2111 19.165 21.196 19.2111 19.165 21.2387 19.2111 19.165 
21.2813 19.2111 19.165 21.324 19.2111 19.165 21.3667 19.2111 19.165 
21.4093 19.2111 19.165 21.452 19.2111 19.165 21.4947 19.2111 19.165 
21.5387 19.2111 19.165 21.5874 19.2111 19.165 21.6416 19.2111 19.165 
21.7015 19.2111 19.165 21.7677 19.2111 19.165 21.8406 19.2111 19.165 
21.9207 19.2111 19.165 22.0082 19.2111 19.165 22.1037 19.2111 19.165 
22.2072 19.2111 19.165 22.3192 19.2111 19.165 22.4395 19.2111 19.165 
22.5683 19.2111 19.165 22.7053 19.2111 19.165 22.8501 19.2111 19.165 
19.916 19.2727 19.165 19.9587 19.2727 19.165 20.0013 19.2727 19.165 
20.044 19.2727 19.165 20.0867 19.2727 19.165 20.1293 19.2727 19.165 
20.172 19.2727 19.165 20.2147 19.2727 19.165 20.2573 19.2727 19.165 
20.3 19.2727 19.165 20.3427 19.2727 19.165 20.3853 19.2727 19.165 
20.428 19.2727 19.165 20.4707 19.2727 19.165 20.5133 19.2727 19.165 
20.556 19.2727 19.165 20.5987 19.2727 19.165 20.6413 19.2727 19.165 
20.684 19.2727 19.165 20.7267 19.2727 19.165 20.7693 19.2727 19.165 
20.812 19.2727 19.165 20.8547 19.2727 19.165 20.8973 19.2727 19.165 
20.94 19.2727 19.165 20.9827 19.2727 19.165 21.0253 19.2727 19.165 
21.068 19.2727 19.165 21.1107 19.2727 19.165 21.1533 19.2727 19.165 
21.196 19.2727 19.165 21.2387 19.2727 19.165 21.2813 19.2727 19.165 
21.324 19.2727 19.165 21.3667 19.2727 19.165 21.4093 19.2727 19.165 
21.452 19.2727 19.165 21.4947 19.2727 19.165 21.5387 19.2727 19.165 
21.5874 19.2727 19.165 21.6416 19.2727 19.165 21.7015 19.2727 19.165 
21.7677 19.2727 19.165 21.8406 19.2727 19.165 21.9207 19.2727 19.165 
22.0082 19.2727 19.165 22.1037 19.2727 19.165 22.2072 19.2727 19.165 
22.3192 19.2727 19.165 22.4395 19.2727 19.165 22.5683 19.2727 19.165 
22.7053 19.2727 19.165 22.8501 19.2727 19.165 19.916 19.315 19.165 
19.9587 19.315 19.165 20.0013 19.315 19.165 20.044 19.315 19.165 
20.0867 19.315 19.165 20.1293 19.315 19.165 20.172 19.315 19.165 
20.2147 19.315 19.165 20.2573 19.315 19.165 20.3 19.315 19.165 
20.3427 19.315 19.165 20.3853 19.315 19.165 20.428 19.315 19.165 
20.4707 19.315 19.165 20.5133 19.315 19.165 20.556 19.315 19.165 
20.5987 19.315 19.165 20.6413 19.315 19.165 20.684 19.315 19.165 
20.7267 19.315 19.165 20.7693 19.315 19.165 20.812 19.315 19.165 
20.8547 19.315 19.165 20.8973 19.315 19.165 20.94 19.315 19.165 
20.9827 19.315 19.165 21.0253 19.315 19.165 21.068 19.315 19.165 
21.1107 19.315 19.165 21.1533 19.315 19.165 21.196 19.315 19.165 
21.2387 19.315 19.165 21.2813 19.315 19.165 21.324 19.315 19.165 
21.3667 19.315 19.165 21.4093 19.315 19.165 21.452 19.315 19.165 
21.4947 19.315 19.165 21.5387 19.315 19.165 21.5874 19.315 19.165 
21.6416 19.315 19.165 21.7015 19.315 19.165 21.7677 19.315 19.165 
21.8406 19.315 19.165 21.9207 19.315 19.165 22.0082 19.315 19.165 
22.1037 19.315 19.165 22.2072 19.315 19.165 22.3192 19.315 19.165 
22.4395 19.315 19.165 22.5683 19.315 19.165 22.7053 19.315 19.165 
22.8501 19.315 19.165 19.916 19.355 19.165 19.9587 19.355 19.165 
20.0013 19.355 19.165 20.044 19.355 19.165 20.0867 19.355 19.165 
20.1293 19.355 19.165 20.172 19.355 19.165 20.2147 19.355 19.165 
20.2573 19.355 19.165 20.3 19.355 19.165 20.3427 19.355 19.165 
20.3853 19.355 19.165 20.428 19.355 19.165 20.4707 19.355 19.165 
20.5133 19.355 19.165 20.556 19.355 19.165 20.5987 19.355 19.165 
20.6413 19.355 19.165 20.684 19.355 19.165 20.7267 19.355 19.165 
20.7693 19.355 19.165 20.812 19.355 19.165 20.8547 19.355 19.165 
20.8973 19.355 19.165 20.94 19.355 19.165 20.9827 19.355 19.165 
21.0253 19.355 19.165 21.068 19.355 19.165 21.1107 19.355 19.165 
21.1533 19.355 19.165 21.196 19.355 19.165 21.2387 19.355 19.165 
21.2813 19.355 19.165 21.324 19.355 19.165 21.3667 19.355 19.165 
21.4093 19.355 19.165 21.452 19.355 19.165 21.4947 19.355 19.165 
21.5387 19.355 19.165 21.5874 19.355 19.165 21.6416 19.355 19.165 
21.7015 19.355 19.165 21.7677 19.355 19.165 21.8406 19.355 19.165 
21.9207 19.355 19.165 22.0082 19.355 19.165 22.1037 19.355 19.165 
22.2072 19.355 19.165 22.3192 19.355 19.165 22.4395 19.355 19.165 
22.5683 19.355 19.165 22.7053 19.355 19.165 22.8501 19.355 19.165 
19.916 19.395 19.165 19.9587 19.395 19.165 20.0013 19.395 19.165 
20.044 19.395 19.165 20.0867 19.395 19.165 20.1293 19.395 19.165 
20.172 19.395 19.165 20.2147 19.395 19.165 20.2573 19.395 19.165 
20.3 19.395 19.165 20.3427 19.395 19.165 20.3853 19.395 19.165 
20.428 19.395 19.165 20.4707 19.395 19.165 20.5133 19.395 19.165 
20.556 19.395 19.165 20.5987 19.395 19.165 20.6413 19.395 19.165 
20.684 19.395 19.165 20.7267 19.395 19.165 20.7693 19.395 19.165 
20.812 19.395 19.165 20.8547 19.395 19.165 20.8973 19.395 19.165 
20.94 19.395 19.165 20.9827 19.395 19.165 21.0253 19.395 19.165 
21.068 19.395 19.165 21.1107 19.395 19.165 21.1533 19.395 19.165 
21.196 19.395 19.165 21.2387 19.395 19.165 21.2813 19.395 19.165 
21.324 19.395 19.165 21.3667 19.395 19.165 21.4093 19.395 19.165 
21.452 19.395 19.165 21.4947 19.395 19.165 21.5387 19.395 19.165 
21.5874 19.395 19.165 21.6416 19.395 19.165 21.7015 19.395 19.165 
21.7677 19.395 19.165 21.8406 19.395 19.165 21.9207 19.395 19.165 
22.0082 19.395 19.165 22.1037 19.395 19.165 22.2072 19.395 19.165 
22.3192 19.395 19.165 22.4395 19.395 19.165 22.5683 19.395 19.165 
22.7053 19.395 19.165 22.8501 19.395 19.165 19.916 19.435 19.165 
19.9587 19.435 19.165 20.0013 19.435 19.165 20.044 19.435 19.165 
20.0867 19.435 19.165 20.1293 19.435 19.165 20.172 19.435 19.165 
20.2147 19.435 19.165 20.2573 19.435 19.165 20.3 19.435 19.165 
20.3427 19.435 19.165 20.3853 19.435 19.165 20.428 19.435 19.165 
20.4707 19.435 19.165 20.5133 19.435 19.165 20.556 19.435 19.165 
20.5987 19.435 19.165 20.6413 19.435 19.165 20.684 19.435 19.165 
20.7267 19.435 19.165 20.7693 19.435 19.165 20.812 19.435 19.165 
20.8547 19.435 19.165 20.8973 19.435 19.165 20.94 19.435 19.165 
20.9827 19.435 19.165 21.0253 19.435 19.165 21.068 19.435 19.165 
21.1107 19.435 19.165 21.1533 19.435 19.165 21.196 19.435 19.165 
21.2387 19.435 19.165 21.2813 19.435 19.165 21.324 19.435 19.165 
21.3667 19.435 19.165 21.4093 19.435 19.165 21.452 19.435 19.165 
21.4947 19.435 19.165 21.5387 19.435 19.165 21.5874 19.435 19.165 
21.6416 19.435 19.165 21.7015 19.435 19.165 21.7677 19.435 19.165 
21.8406 19.435 19.165 21.9207 19.435 19.165 22.0082 19.435 19.165 
22.1037 19.435 19.165 22.2072 19.435 19.165 22.3192 19.435 19.165 
22.4395 19.435 19.165 22.5683 19.435 19.165 22.7053 19.435 19.165 
22.8501 19.435 19.165 19.916 19.475 19.165 19.9587 19.475 19.165 
20.0013 19.475 19.165 20.044 19.475 19.165 20.0867 19.475 19.165 
20.1293 19.475 19.165 20.172 19.475 19.165 20.2147 19.475 19.165 
20.2573 19.475 19.165 20.3 19.475 19.165 20.3427 19.475 19.165 
20.3853 19.475 19.165 20.428 19.475 19.165 20.4707 19.475 19.165 
[...]
POINT_DATA 95718
SCALARS PredictedField double
LOOKUP_TABLE default
3.4230732126e-05 1.7164727979e-05 3.6393698792e-06 2.4317016596e-06 2.6018799417e-06 3.0814342153e-06 3.3790959151e-06 3.8211419451e-06 4.3611280489e-06 
4.8848214647e-06 5.3569506235e-06 5.9501821852e-06 6.7326559474e-06 7.3567457548e-06 8.1671933003e-06 8.8773576863e-06 9.4455836006e-06 1.0213828318e-05 
1.0751706213e-05 1.0996342098e-05 1.1231621102e-05 1.1155007996e-05 1.0772873793e-05 1.0128985195e-05 9.2015125119e-06 8.1539865278e-06 7.0444029916e-06 
5.9001199588e-06 4.9431764637e-06 3.9771857701e-06 3.2204150102e-06 2.6772161164e-06 2.1038840714e-06 1.6766581439e-06 1.4250329059e-06 1.1386794085e-06 
9.3391560085e-07 7.5167270097e-07 1.2885618617e-06 9.6370513347e-07 5.4492596746e-07 4.4818526135e-07 3.7106360651e-07 3.1781090115e-07 2.6378913276e-07 
2.133435828e-07 1.7569625754e-07 1.3735687787e-07 1.1396881661e-07 8.8830560685e-08 3.4156151685e-08 8.4168529924e-09 2.332770066e-08 5.243353371e-05 
2.9894701584e-05 6.6546613198e-06 3.948704034e-06 4.5674041758e-06 5.4806969274e-06 6.3692482399e-06 7.4822110037e-06 8.7295784397e-06 1.0154308256e-05 
1.1739192814e-05 1.3567620954e-05 1.5580451873e-05 1.7652677343e-05 2.0161938664e-05 2.2665695724e-05 2.4902998121e-05 2.7363796107e-05 2.9400689527e-05 
3.0803868867e-05 3.1738301914e-05 3.1618215871e-05 3.0443292417e-05 2.8338219636e-05 2.5321818612e-05 2.1835767257e-05 1.8021097276e-05 1.4527862731e-05 
1.1693007764e-05 9.0553849077e-06 7.0144260462e-06 5.4796923905e-06 4.1728549149e-06 3.2780103538e-06 2.5711321996e-06 1.9621850242e-06 1.5506950604e-06 
1.2290662426e-06 1.6054243588e-06 1.1829558844e-06 6.1470058199e-07 4.8414875664e-07 3.3340208461e-07 2.2951341805e-07 1.8160193349e-07 1.1194696015e-07 
9.0735511549e-08 6.6188768244e-08 9.1530885982e-08 1.1617618156e-07 1.6059020425e-07 2.0698757908e-07 2.1524354565e-07 6.5502972575e-05 3.9583490434e-05 
8.7024345703e-06 5.1044439715e-06 6.1531350184e-06 7.4650820352e-06 9.0299672593e-06 1.0817559087e-05 1.3022678104e-05 1.5522178728e-05 1.8468974304e-05 
2.2015197828e-05 2.6180079658e-05 3.0675833841e-05 3.5943288822e-05 4.1695515392e-05 4.7544075642e-05 5.4187734349e-05 6.0296959418e-05 6.5395484853e-05 
6.9372115831e-05 7.0751615567e-05 6.9071495091e-05 6.41700899e-05 5.6443390349e-05 4.751758388e-05 3.7978912587e-05 2.9422259104e-05 2.2498390535e-05 
1.6594265617e-05 1.2255964066e-05 9.0565281425e-06 6.61754666e-06 4.863900358e-06 3.6476890273e-06 2.6723269002e-06 2.0129095901e-06 1.4987956547e-06 
1.7378948769e-06 1.2226872741e-06 5.2120202554e-07 3.2476577871e-07 2.0488757002e-07 8.8399829679e-08 6.1913510763e-08 1.274121928e-07 1.9677746366e-07 
2.6865578207e-07 3.8108066747e-07 5.0252282335e-07 6.2131022105e-07 7.5768809893e-07 8.4605795792e-07 7.3857481766e-05 4.5853797928e-05 1.0248471881e-05 
6.0363963712e-06 7.1424856287e-06 8.5874817159e-06 1.0658519386e-05 1.2953235455e-05 1.5785702999e-05 1.9105398678e-05 2.313942241e-05 2.8229625968e-05 
3.432556332e-05 4.1270242946e-05 4.9579688493e-05 5.9345857153e-05 6.9881287345e-05 8.2054830273e-05 9.4720016932e-05 0.00010642089183 0.00011657917639 
0.00012217434414 0.00012146902009 0.00011369928689 9.9610668258e-05 8.2212980487e-05 6.3858555222e-05 4.7781646572e-05 3.5042710806e-05 2.5032355552e-05 
1.7787373508e-05 1.2576421796e-05 8.8548331405e-06 6.4200216912e-06 4.6894419938e-06 3.4213398976e-06 2.5794035992e-06 1.8651073788e-06 1.765424372e-06 
1.1621303884e-06 5.670669907e-07 4.7684511628e-07 3.7602791281e-07 4.5884488031e-07 4.3712148567e-07 6.2876569018e-07 7.634749295e-07 9.5053411542e-07 
1.242063945e-06 1.6638375655e-06 2.0345055418e-06 2.4244673114e-06 2.6990696824e-06 7.9835612269e-05 5.0730337534e-05 1.1540956621e-05 6.8649501372e-06 
8.3279946921e-06 1.024447829e-05 1.2629503544e-05 1.5470302969e-05 1.8931998056e-05 2.330496136e-05 2.8422507967e-05 3.4868808143e-05 4.2846219003e-05 
5.2115541621e-05 6.3829924329e-05 7.751116209e-05 9.3094284239e-05 0.00011168009223 0.00013153621694 0.00015121822071 0.00016929437697 0.00018128940428 
0.00018411519704 0.00017458968796 0.00015367886226 0.00012630116544 9.7186792118e-05 7.1512644354e-05 5.1212729886e-05 3.5701610614e-05 2.4866598324e-05 
1.7209253201e-05 1.1908412489e-05 8.4946786956e-06 6.1010732679e-06 4.4717758101e-06 3.3082840218e-06 2.4677453894e-06 1.8372413706e-06 1.2463909798e-06 
7.5973701996e-07 5.6569024309e-07 4.0438220594e-07 2.3026281326e-07 6.3028352315e-08 1.0138114703e-07 1.8340986685e-07 1.6357570587e-07 2.1232237657e-07 
2.3386814973e-07 3.595356759e-07 3.9506173266e-07 3.7897262928e-07 8.4906583652e-05 5.4774940509e-05 1.2577780581e-05 7.8606935858e-06 9.8074697235e-06 
1.1998738046e-05 1.494776825e-05 1.8309150619e-05 2.2811480449e-05 2.83722311e-05 3.4977136238e-05 4.3524822104e-05 5.3734165704e-05 6.6299180617e-05 
8.2078200649e-05 0.00010133577598 0.00012436399993 0.00015217279724 0.00018388633907 0.00021726638079 0.00024985094205 0.00027459883131 0.00028441476752 
0.00027222748031 0.00023837301705 0.00019174943736 0.00014285180077 0.00010111682786 6.933867553e-05 4.6395125537e-05 3.101045877e-05 2.0960487745e-05 
1.4063426534e-05 9.7385691333e-06 6.7451878749e-06 4.8358056119e-06 3.6185242607e-06 2.5940732939e-06 1.9369533675e-06 1.3869033637e-06 8.9011643922e-07 
6.7467618692e-07 4.5333840148e-07 3.4324932585e-07 2.0679301826e-07 1.7641623629e-07 1.5988352686e-07 1.6781574175e-07 1.4510749224e-07 1.587280849e-07 
7.3550673108e-08 4.9533692703e-08 3.9323992951e-08 8.9489301899e-05 5.8526104112e-05 1.3465582924e-05 8.6781628852e-06 1.0685552297e-05 1.3311695511e-05 
1.6600182789e-05 2.0814100935e-05 2.6185758543e-05 3.2901891245e-05 4.1296447307e-05 5.1685274229e-05 6.4825580921e-05 8.1015205069e-05 0.00010207779269 
0.00012838140537 0.00016034751025 0.00020114460494 0.00025034035207 0.00030539484578 0.00036256550811 0.00041063700337 0.00043516530422 0.00042061400018 
0.00036530569196 0.000285792863 0.00020399781351 0.00013766060874 9.005812899e-05 5.7824523537e-05 3.7323392462e-05 2.4503811801e-05 1.6189744201e-05 
1.088562567e-05 7.4793038038e-06 5.3801222748e-06 3.9732840378e-06 2.8035060495e-06 1.9917804366e-06 1.4184028032e-06 9.5920347576e-07 7.57176565e-07 
5.0682297115e-07 3.4398138382e-07 1.9955301411e-07 1.9552089725e-07 1.5107234219e-07 1.7092142457e-07 1.6061026997e-07 1.1295550451e-07 6.691561083e-08 
6.3872789724e-08 1.5655691188e-09 9.3614034995e-05 6.1931896198e-05 1.4324397853e-05 9.3567223303e-06 1.1775403436e-05 1.4712913071e-05 1.8661452486e-05 
2.3716522264e-05 2.9950500902e-05 3.787919195e-05 4.7851772251e-05 6.082717664e-05 7.7179705841e-05 9.7898824606e-05 0.00012524190242 0.00015961493773 
0.00020250544185 0.00025995928445 0.00033459800761 0.00042190297972 0.0005176962004 0.00060426304117 0.00065548252314 0.00063904374838 0.00054830190493 
0.00041363062337 0.00028108511469 0.00017985545855 0.00011195502884 6.9249967055e-05 4.327546776e-05 2.7671545467e-05 1.8082511815e-05 1.1993544831e-05 
8.163212442e-06 5.8067730606e-06 4.2245042096e-06 3.0445462471e-06 2.0268921617e-06 1.4153943084e-06 1.0433290072e-06 8.3152082198e-07 5.6434134876e-07 
3.1277110679e-07 2.0537684975e-07 1.8115927958e-07 1.1584357651e-07 1.5905531825e-07 1.5186674318e-07 1.1611290773e-07 4.7654200586e-08 4.9267146807e-08 
5.881580023e-08 9.7105024906e-05 6.4889522037e-05 1.5222702132e-05 1.0116888006e-05 1.2816642084e-05 1.6308587874e-05 2.0876552298e-05 2.6518016966e-05 
3.3761814848e-05 4.3199866923e-05 5.5122527556e-05 7.0774185588e-05 9.0887864644e-05 0.00011671389075 0.00015104041086 0.00019473583961 0.0002487685415 
0.00032398765325 0.00043194688624 0.00056346372003 0.00071101210779 0.00084998516832 0.00093520968221 0.00091220106697 0.00076677178731 0.00055279413937 
0.00035728080547 0.00021847544122 0.00013103963283 7.882949285e-05 4.8263067583e-05 3.0230785342e-05 1.9614948542e-05 1.2932223399e-05 8.7373409769e-06 
6.0866559579e-06 4.449050266e-06 3.2812799873e-06 1.9911715299e-06 1.5017599253e-06 1.1717407915e-06 8.4026714831e-07 6.0832121562e-07 4.0262085577e-07 
2.775973087e-07 1.2497132218e-07 7.2281025609e-08 1.2611737077e-07 1.7241525541e-07 1.3297903934e-07 8.863777623e-08 4.2709210391e-08 8.6766824836e-08 
9.9756471172e-05 6.7542248871e-05 1.5826897652e-05 1.0846254554e-05 1.4012871361e-05 1.7864953406e-05 2.2914051442e-05 2.9335356885e-05 3.7870719098e-05 
4.8720190534e-05 6.2796330894e-05 8.1258272985e-05 0.00010543959797 0.00013689479965 0.00017912160547 0.00023353625147 0.00029915422783 0.00039029752952 
0.00053205777658 0.00071280478733 0.00091335951583 0.0010935099563 0.0011894948548 0.0011401607189 0.0009357490926 0.00064821669366 0.00040284835268 
0.00024029667838 0.00014198770805 8.4724764747e-05 5.1505816373e-05 3.2038806239e-05 2.068901631e-05 1.3645992112e-05 9.1086558314e-06 6.3223665165e-06 
4.6686677706e-06 3.5229904825e-06 1.9657497887e-06 1.5289223256e-06 1.239935159e-06 8.5886824763e-07 6.527695291e-07 4.236165978e-07 3.1211905593e-07 
7.0701290156e-08 6.5193169974e-08 1.4836010109e-07 2.0420588953e-07 1.5976782208e-07 1.3813041733e-07 5.7142447218e-08 7.9059240932e-08 0.00010176148498 
6.9344481744e-05 1.6372046957e-05 1.1871181414e-05 1.5060957594e-05 1.9288112526e-05 2.4965327611e-05 3.225735054e-05 4.1932042222e-05 5.4314576118e-05 
7.0492576924e-05 9.1881222033e-05 0.00012018768757 0.00015722578974 0.00020780385239 0.00027475989191 0.00035719081643 0.00046629269491 0.00062771647936 
0.00083474774146 0.0010614689672 0.0012194516603 0.0012484889012 0.0011293735588 0.00091207964579 0.00063566624885 0.00039724912494 0.00023910365417 
0.0001429442782 8.6206709966e-05 5.2795545344e-05 3.2868425478e-05 2.1254269086e-05 1.4079946595e-05 9.4107244877e-06 6.5398803599e-06 4.7991770771e-06 
3.6827630083e-06 1.9194603738e-06 1.531447424e-06 1.2582871705e-06 9.227095461e-07 7.0416120934e-07 4.7428596872e-07 3.0962101505e-07 8.2935130763e-08 
1.110603236e-07 1.342905307e-07 2.1055763e-07 1.8343034469e-07 9.8800136072e-08 8.6342652139e-08 1.1937949296e-07 0.00010265011952 7.0379530371e-05 
1.6530893845e-05 1.2522480574e-05 1.6048588805e-05 2.0841480364e-05 2.691896043e-05 3.502351683e-05 4.5767748816e-05 5.9749359934e-05 7.7832628449e-05 
0.00010202093108 0.00013407992083 0.00017629520153 0.00023376803438 0.00031099381158 0.00040970696136 0.00053529493744 0.00069785915548 0.00089121540077 
0.0010790105443 0.0011165514588 0.0010153625626 0.00086454296252 0.00070227636024 0.00051868945593 0.00034630426671 0.00021906862094 0.00013557683269 
8.3727194578e-05 5.2206418331e-05 3.2818628824e-05 2.1365025532e-05 1.4234092305e-05 9.5832119769e-06 6.6180195972e-06 4.9258092076e-06 3.7599736515e-06 
1.8762135596e-06 1.4684032976e-06 1.3235735423e-06 9.1961129556e-07 7.7053914538e-07 5.0381294159e-07 3.0945204799e-07 6.2086627395e-08 6.2895935571e-08 
1.1739755479e-07 2.0876041162e-07 1.5072424731e-07 1.2732364496e-07 8.0206078223e-08 1.2463227961e-07 0.00010236229718 7.050363638e-05 1.654445623e-05 
1.298911593e-05 1.6969195713e-05 2.1961506718e-05 2.8618218494e-05 3.7401307054e-05 4.8952180805e-05 6.425956235e-05 8.4022009105e-05 0.00011060033285 
0.00014564744197 0.00019158951181 0.00025331650977 0.00033496585093 0.00044019619236 0.00057166686747 0.00072422495577 0.00088344898541 0.00097940955311 
0.00090931064915 0.0008536685491 0.00076119141886 0.00058040081058 0.0004200207477 0.00028988777194 0.00019182890537 0.0001233179064 7.8335076978e-05 
4.9878890422e-05 3.1909065001e-05 2.1003977963e-05 1.4132396245e-05 9.5639243227e-06 6.6801453613e-06 4.9299305829e-06 3.8090015551e-06 1.70539397e-06 
1.3630648255e-06 1.4134586763e-06 1.0485880466e-06 8.0236645772e-07 5.5336158766e-07 2.7741464237e-07 8.4698577041e-08 8.2225838582e-08 1.594999901e-07 
1.56434524e-07 1.9450688171e-07 1.5379282559e-07 8.1949266928e-08 1.5372955886e-07 0.00010104190733 7.008024113e-05 1.6128349671e-05 1.3441854207e-05 
1.749869989e-05 2.2900669137e-05 3.0027651519e-05 3.9311165892e-05 5.146712283e-05 6.759801181e-05 8.8587155915e-05 0.00011652035755 0.00015319464728 
0.0002007176081 0.00026349860127 0.00034419386066 0.0004454923328 0.00056774524273 0.00069879589137 0.00082045013551 0.00088908319594 0.00090049748542 
0.00088991632219 0.00069812929723 0.00048573658569 0.00034134759335 0.00023868809512 0.00016310779029 0.00010848594684 7.0941139711e-05 4.6352277423e-05 
3.0269353374e-05 2.023136949e-05 1.3745987417e-05 9.387233149e-06 6.6478810368e-06 4.8999531828e-06 3.7916579458e-06 1.6622860812e-06 1.2945330354e-06 
1.4532822661e-06 1.0930227745e-06 8.6650464937e-07 5.6142386029e-07 2.8461775514e-07 7.4767619651e-08 3.2688355134e-08 1.5688158328e-07 2.1417152141e-07 
2.0915987875e-07 1.0481306845e-07 1.1025263547e-07 1.2803134553e-07 9.8454431281e-05 6.8732922955e-05 1.552195863e-05 1.3666084669e-05 1.7921793187e-05 
2.3542173949e-05 3.0901999708e-05 4.0532318963e-05 5.2978644817e-05 6.9490975875e-05 9.088342631e-05 0.00011902791448 0.00015559651365 0.00020203088934 
0.00026198645355 0.00033610101673 0.00042470233166 0.00052489258815 0.00062238710234 0.00069767097011 0.0007287482731 0.00072365067899 0.00065966881812 
0.00050586619182 0.00036319019273 0.00026472509489 0.00019104224339 0.00013503283844 9.2739261163e-05 6.2496852479e-05 4.1929899453e-05 2.8071966881e-05 
1.9070424969e-05 1.31502984e-05 9.0838639153e-06 6.522908734e-06 4.8039169087e-06 3.6885205645e-06 1.5242167137e-06 1.2863648635e-06 1.5118772581e-06 
1.070821213e-06 8.5097519786e-07 5.5721386616e-07 2.505231862e-07 8.8346681082e-08 6.1096137927e-08 1.9661979422e-07 1.9400874862e-07 1.5419877286e-07 
1.3128429543e-07 9.1212363884e-08 1.6764772681e-07 9.5022660389e-05 6.7088265496e-05 1.4259272575e-05 1.372638053e-05 1.8045575416e-05 2.367801244e-05 
3.1152459997e-05 4.0721977712e-05 5.3241546993e-05 6.9571178756e-05 9.0443980298e-05 0.00011756746972 0.00015203331714 0.00019463321951 0.00024779481464 
0.00031041356851 0.00038017577026 0.00045166289783 0.00051068008179 0.00054181949235 0.00053531938465 0.00050192169147 0.00043922834448 0.00034776277607 
0.00026468242868 0.00020165632304 0.00015024925233 0.00010944336827 7.7648925071e-05 5.3861058404e-05 3.716719948e-05 2.5471284971e-05 1.7656666387e-05 
1.238477671e-05 8.6581676442e-06 6.3056663748e-06 4.6436971388e-06 3.6324950088e-06 1.444633881e-06 1.1868791034e-06 1.4865421463e-06 1.0806102182e-06 
8.0609561337e-07 5.2119139582e-07 2.3183845599e-07 3.2156940222e-08 5.9858699331e-08 2.35761064e-07 2.53473047e-07 1.4891348599e-07 1.2203538802e-07 
7.7155192457e-08 1.145566344e-07 9.0453184384e-05 6.5480613557e-05 1.3179145753e-05 1.3513385966e-05 1.7921600374e-05 2.3376866011e-05 3.0614832212e-05 
4.0032318793e-05 5.218298611e-05 6.7670654971e-05 8.7117557996e-05 0.00011203939357 0.00014276482398 0.00017944622959 0.00022319702839 0.00027179767494 
0.00032141740667 0.00036663276842 0.00039702831418 0.00040458131116 0.00038766741636 0.000354484946 0.00030841812259 0.00025160121731 0.00019848137163 
0.00015491376689 0.00011781783542 8.7902772066e-05 6.409339403e-05 4.5686039812e-05 3.2428928535e-05 2.2751404686e-05 1.6102510926e-05 1.1483675735e-05 
8.22304537e-06 6.0591601141e-06 4.5083697842e-06 3.5199450394e-06 1.4225532823e-06 1.1799453432e-06 1.4862772559e-06 1.0513846291e-06 7.8102596035e-07 
5.1485102404e-07 2.1934192773e-07 4.4769954854e-08 6.7531196635e-08 1.9434294529e-07 2.2780201903e-07 1.9738813251e-07 1.0617392121e-07 5.9850854939e-08 
1.3570493707e-07 8.6059808382e-05 6.4624233346e-05 1.1451240425e-05 1.3149131519e-05 1.7394977476e-05 2.2698410248e-05 2.9564182114e-05 3.8464888348e-05 
4.971133967e-05 6.3897001382e-05 8.1381200289e-05 0.00010328154895 0.00012921985763 0.00015886218171 0.00019264887669 0.00022770138457 0.00026052905014 
0.00028720998671 0.0003014158865 0.0003007594205 0.00028535816818 0.00025997043122 0.00022740075656 0.00018886843463 0.00015184949734 0.00012018002599 
9.2712289188e-05 7.0502617746e-05 5.2556413721e-05 3.8380589103e-05 2.7916845283e-05 2.0095747459e-05 1.4525601728e-05 1.0569219739e-05 7.6582737165e-06 
5.7563943301e-06 4.2624310481e-06 3.3796843582e-06 1.2800787772e-06 1.1024874311e-06 1.4084868099e-06 1.0811944549e-06 7.7324619951e-07 5.3367870123e-07 
2.3035069319e-07 4.3350272705e-08 4.9913658984e-08 1.5563530553e-07 2.3332886201e-07 1.8819376635e-07 1.1573022363e-07 8.9256111835e-08 1.2154846729e-07 
8.1821424828e-05 6.5116248152e-05 1.0375353668e-05 1.2476065422e-05 1.6645082724e-05 2.1593468773e-05 2.800686525e-05 3.5992750782e-05 4.6116078011e-05 
5.8727731812e-05 7.3743496614e-05 9.1975845862e-05 0.00011289264512 0.00013575916819 0.00016057366156 0.00018473927048 0.00020563804719 0.00022081575298 
0.00022707517201 0.00022410275415 0.00021193757129 0.00019324613095 0.00017011738964 0.00014304433716 0.00011677180737 9.3669419584e-05 7.3204624641e-05 
5.6578144722e-05 4.2946077883e-05 3.2100961107e-05 2.386946835e-05 1.7517881133e-05 1.2937701285e-05 9.6039802884e-06 7.1029644459e-06 5.364338449e-06 
4.0522804738e-06 3.1983011013e-06 1.1723620901e-06 9.5952896118e-07 1.3164942629e-06 9.7897464002e-07 7.2256000294e-07 4.940880558e-07 1.5150368426e-07 
3.8602689045e-08 1.0193858202e-07 2.3152425399e-07 2.6524503483e-07 2.1715916887e-07 1.3706979018e-07 9.1501853206e-08 1.3943602539e-07 7.901970821e-05 
6.7014239903e-05 9.3945673143e-06 1.1614382856e-05 1.5447405531e-05 2.0051928004e-05 2.5880775866e-05 3.2884399843e-05 4.1854385927e-05 5.2541086916e-05 
6.490713713e-05 7.9566372733e-05 9.594149742e-05 0.00011302311759 0.00013064032828 0.00014671511599 0.0001598126546 0.00016833718109 0.00017074355856 
0.00016733419034 0.00015784402785 0.00014403945534 0.00012758525554 0.00010835340072 8.9774650405e-05 7.30785614e-05 5.7977398683e-05 4.5421507821e-05 
3.5148488678e-05 2.6785834052e-05 2.0344927179e-05 1.5256438019e-05 1.1543034816e-05 8.6968011601e-06 6.4423952608e-06 4.994369192e-06 3.79675771e-06 
3.0142109608e-06 1.0648336684e-06 9.0354575377e-07 1.2619586869e-06 9.2272409802e-07 6.3352598545e-07 4.1501292003e-07 1.0963039898e-07 1.053701304e-08 
1.1199395544e-07 1.826987841e-07 2.1884947898e-07 2.1097271485e-07 1.2027645369e-07 1.1367342978e-07 1.3193391624e-07 7.7749587945e-05 6.9999390689e-05 
8.9444611149e-06 1.0581526112e-05 1.4167437257e-05 1.8282462406e-05 2.3482041797e-05 2.9450557122e-05 3.7024830817e-05 4.5908363973e-05 5.5826450989e-05 
6.7385975854e-05 7.9742290836e-05 9.2137233878e-05 0.00010435221338 0.00011507057934 0.00012326067372 0.00012793080532 0.0001285453327 0.00012528696971 
0.00011801026267 0.00010781694436 9.6113166364e-05 8.2506354374e-05 6.9266381615e-05 5.721053094e-05 4.599296517e-05 3.6600893509e-05 2.88193296e-05 
2.2361346055e-05 1.7227430362e-05 1.32490959e-05 1.0141056919e-05 7.7228023656e-06 5.7858387663e-06 4.5227884584e-06 3.5590187508e-06 2.8251690765e-06 
1.048099989e-06 8.7714016672e-07 1.2089524262e-06 9.2190856549e-07 6.3714259113e-07 3.654809575e-07 1.3368067187e-07 6.855638901e-08 1.1985915194e-07 
1.8929706869e-07 2.1195195643e-07 1.9677926844e-07 1.125870881e-07 1.1341839468e-07 1.661081086e-07 7.8576595115e-05 7.3725503171e-05 9.2519576356e-06 
9.4706419986e-06 1.2687757589e-05 1.6401490939e-05 2.0858673452e-05 2.5780936994e-05 3.2059109799e-05 3.9273276343e-05 4.706915206e-05 5.5945216445e-05 
6.5086329414e-05 7.3915565736e-05 8.2453341747e-05 8.9549823315e-05 9.4724258815e-05 9.7242227639e-05 9.6883675724e-05 9.4161732704e-05 8.8512257207e-05 
8.1130841863e-05 7.2794820881e-05 6.3037849031e-05 5.3571016906e-05 4.4871601858e-05 3.6535591789e-05 2.9450275179e-05 2.3670469091e-05 1.8619299226e-05 
1.4606149307e-05 1.1396686205e-05 8.8622064141e-06 6.8045928856e-06 5.2773384596e-06 4.2273300096e-06 3.228012929e-06 2.587795052e-06 9.2607564284e-07 
6.7691519234e-07 1.0413859854e-06 8.3934736494e-07 5.2910263548e-07 3.0842292631e-07 1.4579723029e-07 4.2054015381e-08 1.330981263e-07 1.8751434538e-07 
2.3224475854e-07 1.6227215838e-07 8.1799228724e-08 8.6474130967e-08 8.4499106379e-08 8.1047073763e-05 7.7272648923e-05 9.7150596048e-06 8.3857194113e-06 